+ 1 2 3 tcp 40 ------- 1 2.0 3.0 0 0
- 1 2 3 tcp 40 ------- 1 2.0 3.0 0 0
r 1.01032 2 3 tcp 40 ------- 1 2.0 3.0 0 0
+ 1.01032 3 2 ack 40 ------- 1 3.0 2.0 0 1
- 1.01032 3 2 ack 40 ------- 1 3.0 2.0 0 1
r 1.02064 3 2 ack 40 ------- 1 3.0 2.0 0 1
+ 1.02064 2 3 tcp 1040 ------- 1 2.0 3.0 1 2
- 1.02064 2 3 tcp 1040 ------- 1 2.0 3.0 1 2
+ 1.02064 2 3 tcp 1040 ------- 1 2.0 3.0 2 3
- 1.02896 2 3 tcp 1040 ------- 1 2.0 3.0 2 3
r 1.03896 2 3 tcp 1040 ------- 1 2.0 3.0 1 2
+ 1.03896 3 2 ack 40 ------- 1 3.0 2.0 1 4
- 1.03896 3 2 ack 40 ------- 1 3.0 2.0 1 4
r 1.04728 2 3 tcp 1040 ------- 1 2.0 3.0 2 3
+ 1.04728 3 2 ack 40 ------- 1 3.0 2.0 2 5
- 1.04728 3 2 ack 40 ------- 1 3.0 2.0 2 5
r 1.04928 3 2 ack 40 ------- 1 3.0 2.0 1 4
+ 1.04928 2 3 tcp 1040 ------- 1 2.0 3.0 3 6
- 1.04928 2 3 tcp 1040 ------- 1 2.0 3.0 3 6
+ 1.04928 2 3 tcp 1040 ------- 1 2.0 3.0 4 7
r 1.0576 3 2 ack 40 ------- 1 3.0 2.0 2 5
+ 1.0576 2 3 tcp 1040 ------- 1 2.0 3.0 5 8
+ 1.0576 2 3 tcp 1040 ------- 1 2.0 3.0 6 9
- 1.0576 2 3 tcp 1040 ------- 1 2.0 3.0 4 7
- 1.06592 2 3 tcp 1040 ------- 1 2.0 3.0 5 8
r 1.0676 2 3 tcp 1040 ------- 1 2.0 3.0 3 6
+ 1.0676 3 2 ack 40 ------- 1 3.0 2.0 3 10
- 1.0676 3 2 ack 40 ------- 1 3.0 2.0 3 10
- 1.07424 2 3 tcp 1040 ------- 1 2.0 3.0 6 9
r 1.07592 2 3 tcp 1040 ------- 1 2.0 3.0 4 7
+ 1.07592 3 2 ack 40 ------- 1 3.0 2.0 4 11
- 1.07592 3 2 ack 40 ------- 1 3.0 2.0 4 11
r 1.07792 3 2 ack 40 ------- 1 3.0 2.0 3 10
+ 1.07792 2 3 tcp 1040 ------- 1 2.0 3.0 7 12
+ 1.07792 2 3 tcp 1040 ------- 1 2.0 3.0 8 13
- 1.08256 2 3 tcp 1040 ------- 1 2.0 3.0 7 12
r 1.08424 2 3 tcp 1040 ------- 1 2.0 3.0 5 8
+ 1.08424 3 2 ack 40 ------- 1 3.0 2.0 5 14
- 1.08424 3 2 ack 40 ------- 1 3.0 2.0 5 14
r 1.08624 3 2 ack 40 ------- 1 3.0 2.0 4 11
+ 1.08624 2 3 tcp 1040 ------- 1 2.0 3.0 9 15
+ 1.08624 2 3 tcp 1040 ------- 1 2.0 3.0 10 16
- 1.09088 2 3 tcp 1040 ------- 1 2.0 3.0 8 13
r 1.09256 2 3 tcp 1040 ------- 1 2.0 3.0 6 9
+ 1.09256 3 2 ack 40 ------- 1 3.0 2.0 6 17
- 1.09256 3 2 ack 40 ------- 1 3.0 2.0 6 17
r 1.09456 3 2 ack 40 ------- 1 3.0 2.0 5 14
+ 1.09456 2 3 tcp 1040 ------- 1 2.0 3.0 11 18
+ 1.09456 2 3 tcp 1040 ------- 1 2.0 3.0 12 19
- 1.0992 2 3 tcp 1040 ------- 1 2.0 3.0 9 15
r 1.10088 2 3 tcp 1040 ------- 1 2.0 3.0 7 12
+ 1.10088 3 2 ack 40 ------- 1 3.0 2.0 7 20
- 1.10088 3 2 ack 40 ------- 1 3.0 2.0 7 20
r 1.10288 3 2 ack 40 ------- 1 3.0 2.0 6 17
+ 1.10288 2 3 tcp 1040 ------- 1 2.0 3.0 13 21
+ 1.10288 2 3 tcp 1040 ------- 1 2.0 3.0 14 22
- 1.10752 2 3 tcp 1040 ------- 1 2.0 3.0 10 16
r 1.1092 2 3 tcp 1040 ------- 1 2.0 3.0 8 13
+ 1.1092 3 2 ack 40 ------- 1 3.0 2.0 8 23
- 1.1092 3 2 ack 40 ------- 1 3.0 2.0 8 23
r 1.1112 3 2 ack 40 ------- 1 3.0 2.0 7 20
+ 1.1112 2 3 tcp 1040 ------- 1 2.0 3.0 15 24
+ 1.1112 2 3 tcp 1040 ------- 1 2.0 3.0 16 25
- 1.11584 2 3 tcp 1040 ------- 1 2.0 3.0 11 18
r 1.11752 2 3 tcp 1040 ------- 1 2.0 3.0 9 15
+ 1.11752 3 2 ack 40 ------- 1 3.0 2.0 9 26
- 1.11752 3 2 ack 40 ------- 1 3.0 2.0 9 26
r 1.11952 3 2 ack 40 ------- 1 3.0 2.0 8 23
+ 1.11952 2 3 tcp 1040 ------- 1 2.0 3.0 17 27
+ 1.11952 2 3 tcp 1040 ------- 1 2.0 3.0 18 28
- 1.12416 2 3 tcp 1040 ------- 1 2.0 3.0 12 19
r 1.12584 2 3 tcp 1040 ------- 1 2.0 3.0 10 16
+ 1.12584 3 2 ack 40 ------- 1 3.0 2.0 10 29
- 1.12584 3 2 ack 40 ------- 1 3.0 2.0 10 29
r 1.12784 3 2 ack 40 ------- 1 3.0 2.0 9 26
+ 1.12784 2 3 tcp 1040 ------- 1 2.0 3.0 19 30
+ 1.12784 2 3 tcp 1040 ------- 1 2.0 3.0 20 31
- 1.13248 2 3 tcp 1040 ------- 1 2.0 3.0 13 21
r 1.13416 2 3 tcp 1040 ------- 1 2.0 3.0 11 18
+ 1.13416 3 2 ack 40 ------- 1 3.0 2.0 11 32
- 1.13416 3 2 ack 40 ------- 1 3.0 2.0 11 32
r 1.13616 3 2 ack 40 ------- 1 3.0 2.0 10 29
+ 1.13616 2 3 tcp 1040 ------- 1 2.0 3.0 21 33
+ 1.13616 2 3 tcp 1040 ------- 1 2.0 3.0 22 34
- 1.1408 2 3 tcp 1040 ------- 1 2.0 3.0 14 22
r 1.14248 2 3 tcp 1040 ------- 1 2.0 3.0 12 19
+ 1.14248 3 2 ack 40 ------- 1 3.0 2.0 12 35
- 1.14248 3 2 ack 40 ------- 1 3.0 2.0 12 35
r 1.14448 3 2 ack 40 ------- 1 3.0 2.0 11 32
+ 1.14448 2 3 tcp 1040 ------- 1 2.0 3.0 23 36
+ 1.14448 2 3 tcp 1040 ------- 1 2.0 3.0 24 37
- 1.14912 2 3 tcp 1040 ------- 1 2.0 3.0 15 24
r 1.1508 2 3 tcp 1040 ------- 1 2.0 3.0 13 21
+ 1.1508 3 2 ack 40 ------- 1 3.0 2.0 13 38
- 1.1508 3 2 ack 40 ------- 1 3.0 2.0 13 38
r 1.1528 3 2 ack 40 ------- 1 3.0 2.0 12 35
+ 1.1528 2 3 tcp 1040 ------- 1 2.0 3.0 25 39
+ 1.1528 2 3 tcp 1040 ------- 1 2.0 3.0 26 40
- 1.15744 2 3 tcp 1040 ------- 1 2.0 3.0 16 25
r 1.15912 2 3 tcp 1040 ------- 1 2.0 3.0 14 22
+ 1.15912 3 2 ack 40 ------- 1 3.0 2.0 14 41
- 1.15912 3 2 ack 40 ------- 1 3.0 2.0 14 41
r 1.16112 3 2 ack 40 ------- 1 3.0 2.0 13 38
+ 1.16112 2 3 tcp 1040 ------- 1 2.0 3.0 27 42
+ 1.16112 2 3 tcp 1040 ------- 1 2.0 3.0 28 43
- 1.16576 2 3 tcp 1040 ------- 1 2.0 3.0 17 27
r 1.16744 2 3 tcp 1040 ------- 1 2.0 3.0 15 24
+ 1.16744 3 2 ack 40 ------- 1 3.0 2.0 15 44
- 1.16744 3 2 ack 40 ------- 1 3.0 2.0 15 44
r 1.16944 3 2 ack 40 ------- 1 3.0 2.0 14 41
+ 1.16944 2 3 tcp 1040 ------- 1 2.0 3.0 29 45
+ 1.16944 2 3 tcp 1040 ------- 1 2.0 3.0 30 46
- 1.17408 2 3 tcp 1040 ------- 1 2.0 3.0 18 28
r 1.17576 2 3 tcp 1040 ------- 1 2.0 3.0 16 25
+ 1.17576 3 2 ack 40 ------- 1 3.0 2.0 16 47
- 1.17576 3 2 ack 40 ------- 1 3.0 2.0 16 47
r 1.17776 3 2 ack 40 ------- 1 3.0 2.0 15 44
+ 1.17776 2 3 tcp 1040 ------- 1 2.0 3.0 31 48
+ 1.17776 2 3 tcp 1040 ------- 1 2.0 3.0 32 49
- 1.1824 2 3 tcp 1040 ------- 1 2.0 3.0 19 30
r 1.18408 2 3 tcp 1040 ------- 1 2.0 3.0 17 27
+ 1.18408 3 2 ack 40 ------- 1 3.0 2.0 17 50
- 1.18408 3 2 ack 40 ------- 1 3.0 2.0 17 50
r 1.18608 3 2 ack 40 ------- 1 3.0 2.0 16 47
+ 1.18608 2 3 tcp 1040 ------- 1 2.0 3.0 33 51
+ 1.18608 2 3 tcp 1040 ------- 1 2.0 3.0 34 52
- 1.19072 2 3 tcp 1040 ------- 1 2.0 3.0 20 31
r 1.1924 2 3 tcp 1040 ------- 1 2.0 3.0 18 28
+ 1.1924 3 2 ack 40 ------- 1 3.0 2.0 18 53
- 1.1924 3 2 ack 40 ------- 1 3.0 2.0 18 53
r 1.1944 3 2 ack 40 ------- 1 3.0 2.0 17 50
+ 1.1944 2 3 tcp 1040 ------- 1 2.0 3.0 35 54
+ 1.1944 2 3 tcp 1040 ------- 1 2.0 3.0 36 55
- 1.19904 2 3 tcp 1040 ------- 1 2.0 3.0 21 33
r 1.20072 2 3 tcp 1040 ------- 1 2.0 3.0 19 30
+ 1.20072 3 2 ack 40 ------- 1 3.0 2.0 19 56
- 1.20072 3 2 ack 40 ------- 1 3.0 2.0 19 56
r 1.20272 3 2 ack 40 ------- 1 3.0 2.0 18 53
+ 1.20272 2 3 tcp 1040 ------- 1 2.0 3.0 37 57
+ 1.20272 2 3 tcp 1040 ------- 1 2.0 3.0 38 58
- 1.20736 2 3 tcp 1040 ------- 1 2.0 3.0 22 34
r 1.20904 2 3 tcp 1040 ------- 1 2.0 3.0 20 31
+ 1.20904 3 2 ack 40 ------- 1 3.0 2.0 20 59
- 1.20904 3 2 ack 40 ------- 1 3.0 2.0 20 59
r 1.21104 3 2 ack 40 ------- 1 3.0 2.0 19 56
+ 1.21104 2 3 tcp 1040 ------- 1 2.0 3.0 39 60
- 1.21568 2 3 tcp 1040 ------- 1 2.0 3.0 23 36
r 1.21736 2 3 tcp 1040 ------- 1 2.0 3.0 21 33
+ 1.21736 3 2 ack 40 ------- 1 3.0 2.0 21 61
- 1.21736 3 2 ack 40 ------- 1 3.0 2.0 21 61
r 1.21936 3 2 ack 40 ------- 1 3.0 2.0 20 59
+ 1.21936 2 3 tcp 1040 ------- 1 2.0 3.0 40 62
- 1.224 2 3 tcp 1040 ------- 1 2.0 3.0 24 37
r 1.22568 2 3 tcp 1040 ------- 1 2.0 3.0 22 34
+ 1.22568 3 2 ack 40 ------- 1 3.0 2.0 22 63
- 1.22568 3 2 ack 40 ------- 1 3.0 2.0 22 63
r 1.22768 3 2 ack 40 ------- 1 3.0 2.0 21 61
+ 1.22768 2 3 tcp 1040 ------- 1 2.0 3.0 41 64
- 1.23232 2 3 tcp 1040 ------- 1 2.0 3.0 25 39
r 1.234 2 3 tcp 1040 ------- 1 2.0 3.0 23 36
+ 1.234 3 2 ack 40 ------- 1 3.0 2.0 23 65
- 1.234 3 2 ack 40 ------- 1 3.0 2.0 23 65
r 1.236 3 2 ack 40 ------- 1 3.0 2.0 22 63
+ 1.236 2 3 tcp 1040 ------- 1 2.0 3.0 42 66
- 1.24064 2 3 tcp 1040 ------- 1 2.0 3.0 26 40
r 1.24232 2 3 tcp 1040 ------- 1 2.0 3.0 24 37
+ 1.24232 3 2 ack 40 ------- 1 3.0 2.0 24 67
- 1.24232 3 2 ack 40 ------- 1 3.0 2.0 24 67
r 1.24432 3 2 ack 40 ------- 1 3.0 2.0 23 65
+ 1.24432 2 3 tcp 1040 ------- 1 2.0 3.0 43 68
- 1.24896 2 3 tcp 1040 ------- 1 2.0 3.0 27 42
r 1.25064 2 3 tcp 1040 ------- 1 2.0 3.0 25 39
+ 1.25064 3 2 ack 40 ------- 1 3.0 2.0 25 69
- 1.25064 3 2 ack 40 ------- 1 3.0 2.0 25 69
r 1.25264 3 2 ack 40 ------- 1 3.0 2.0 24 67
+ 1.25264 2 3 tcp 1040 ------- 1 2.0 3.0 44 70
- 1.25728 2 3 tcp 1040 ------- 1 2.0 3.0 28 43
r 1.25896 2 3 tcp 1040 ------- 1 2.0 3.0 26 40
+ 1.25896 3 2 ack 40 ------- 1 3.0 2.0 26 71
- 1.25896 3 2 ack 40 ------- 1 3.0 2.0 26 71
r 1.26096 3 2 ack 40 ------- 1 3.0 2.0 25 69
+ 1.26096 2 3 tcp 1040 ------- 1 2.0 3.0 45 72
- 1.2656 2 3 tcp 1040 ------- 1 2.0 3.0 29 45
r 1.26728 2 3 tcp 1040 ------- 1 2.0 3.0 27 42
+ 1.26728 3 2 ack 40 ------- 1 3.0 2.0 27 73
- 1.26728 3 2 ack 40 ------- 1 3.0 2.0 27 73
r 1.26928 3 2 ack 40 ------- 1 3.0 2.0 26 71
+ 1.26928 2 3 tcp 1040 ------- 1 2.0 3.0 46 74
- 1.27392 2 3 tcp 1040 ------- 1 2.0 3.0 30 46
r 1.2756 2 3 tcp 1040 ------- 1 2.0 3.0 28 43
+ 1.2756 3 2 ack 40 ------- 1 3.0 2.0 28 75
- 1.2756 3 2 ack 40 ------- 1 3.0 2.0 28 75
r 1.2776 3 2 ack 40 ------- 1 3.0 2.0 27 73
+ 1.2776 2 3 tcp 1040 ------- 1 2.0 3.0 47 76
- 1.28224 2 3 tcp 1040 ------- 1 2.0 3.0 31 48
r 1.28392 2 3 tcp 1040 ------- 1 2.0 3.0 29 45
+ 1.28392 3 2 ack 40 ------- 1 3.0 2.0 29 77
- 1.28392 3 2 ack 40 ------- 1 3.0 2.0 29 77
r 1.28592 3 2 ack 40 ------- 1 3.0 2.0 28 75
+ 1.28592 2 3 tcp 1040 ------- 1 2.0 3.0 48 78
- 1.29056 2 3 tcp 1040 ------- 1 2.0 3.0 32 49
r 1.29224 2 3 tcp 1040 ------- 1 2.0 3.0 30 46
+ 1.29224 3 2 ack 40 ------- 1 3.0 2.0 30 79
- 1.29224 3 2 ack 40 ------- 1 3.0 2.0 30 79
r 1.29424 3 2 ack 40 ------- 1 3.0 2.0 29 77
+ 1.29424 2 3 tcp 1040 ------- 1 2.0 3.0 49 80
- 1.29888 2 3 tcp 1040 ------- 1 2.0 3.0 33 51
r 1.30056 2 3 tcp 1040 ------- 1 2.0 3.0 31 48
+ 1.30056 3 2 ack 40 ------- 1 3.0 2.0 31 81
- 1.30056 3 2 ack 40 ------- 1 3.0 2.0 31 81
r 1.30256 3 2 ack 40 ------- 1 3.0 2.0 30 79
+ 1.30256 2 3 tcp 1040 ------- 1 2.0 3.0 50 82
- 1.3072 2 3 tcp 1040 ------- 1 2.0 3.0 34 52
r 1.30888 2 3 tcp 1040 ------- 1 2.0 3.0 32 49
+ 1.30888 3 2 ack 40 ------- 1 3.0 2.0 32 83
- 1.30888 3 2 ack 40 ------- 1 3.0 2.0 32 83
r 1.31088 3 2 ack 40 ------- 1 3.0 2.0 31 81
+ 1.31088 2 3 tcp 1040 ------- 1 2.0 3.0 51 84
- 1.31552 2 3 tcp 1040 ------- 1 2.0 3.0 35 54
r 1.3172 2 3 tcp 1040 ------- 1 2.0 3.0 33 51
+ 1.3172 3 2 ack 40 ------- 1 3.0 2.0 33 85
- 1.3172 3 2 ack 40 ------- 1 3.0 2.0 33 85
r 1.3192 3 2 ack 40 ------- 1 3.0 2.0 32 83
+ 1.3192 2 3 tcp 1040 ------- 1 2.0 3.0 52 86
- 1.32384 2 3 tcp 1040 ------- 1 2.0 3.0 36 55
r 1.32552 2 3 tcp 1040 ------- 1 2.0 3.0 34 52
+ 1.32552 3 2 ack 40 ------- 1 3.0 2.0 34 87
- 1.32552 3 2 ack 40 ------- 1 3.0 2.0 34 87
r 1.32752 3 2 ack 40 ------- 1 3.0 2.0 33 85
+ 1.32752 2 3 tcp 1040 ------- 1 2.0 3.0 53 88
- 1.33216 2 3 tcp 1040 ------- 1 2.0 3.0 37 57
r 1.33384 2 3 tcp 1040 ------- 1 2.0 3.0 35 54
+ 1.33384 3 2 ack 40 ------- 1 3.0 2.0 35 89
- 1.33384 3 2 ack 40 ------- 1 3.0 2.0 35 89
r 1.33584 3 2 ack 40 ------- 1 3.0 2.0 34 87
+ 1.33584 2 3 tcp 1040 ------- 1 2.0 3.0 54 90
- 1.34048 2 3 tcp 1040 ------- 1 2.0 3.0 38 58
r 1.34216 2 3 tcp 1040 ------- 1 2.0 3.0 36 55
+ 1.34216 3 2 ack 40 ------- 1 3.0 2.0 36 91
- 1.34216 3 2 ack 40 ------- 1 3.0 2.0 36 91
r 1.34416 3 2 ack 40 ------- 1 3.0 2.0 35 89
+ 1.34416 2 3 tcp 1040 ------- 1 2.0 3.0 55 92
- 1.3488 2 3 tcp 1040 ------- 1 2.0 3.0 39 60
r 1.35048 2 3 tcp 1040 ------- 1 2.0 3.0 37 57
+ 1.35048 3 2 ack 40 ------- 1 3.0 2.0 37 93
- 1.35048 3 2 ack 40 ------- 1 3.0 2.0 37 93
r 1.35248 3 2 ack 40 ------- 1 3.0 2.0 36 91
+ 1.35248 2 3 tcp 1040 ------- 1 2.0 3.0 56 94
- 1.35712 2 3 tcp 1040 ------- 1 2.0 3.0 40 62
r 1.3588 2 3 tcp 1040 ------- 1 2.0 3.0 38 58
+ 1.3588 3 2 ack 40 ------- 1 3.0 2.0 38 95
- 1.3588 3 2 ack 40 ------- 1 3.0 2.0 38 95
r 1.3608 3 2 ack 40 ------- 1 3.0 2.0 37 93
+ 1.3608 2 3 tcp 1040 ------- 1 2.0 3.0 57 96
- 1.36544 2 3 tcp 1040 ------- 1 2.0 3.0 41 64
r 1.36712 2 3 tcp 1040 ------- 1 2.0 3.0 39 60
+ 1.36712 3 2 ack 40 ------- 1 3.0 2.0 39 97
- 1.36712 3 2 ack 40 ------- 1 3.0 2.0 39 97
r 1.36912 3 2 ack 40 ------- 1 3.0 2.0 38 95
+ 1.36912 2 3 tcp 1040 ------- 1 2.0 3.0 58 98
- 1.37376 2 3 tcp 1040 ------- 1 2.0 3.0 42 66
r 1.37544 2 3 tcp 1040 ------- 1 2.0 3.0 40 62
+ 1.37544 3 2 ack 40 ------- 1 3.0 2.0 40 99
- 1.37544 3 2 ack 40 ------- 1 3.0 2.0 40 99
r 1.37744 3 2 ack 40 ------- 1 3.0 2.0 39 97
+ 1.37744 2 3 tcp 1040 ------- 1 2.0 3.0 59 100
- 1.38208 2 3 tcp 1040 ------- 1 2.0 3.0 43 68
r 1.38376 2 3 tcp 1040 ------- 1 2.0 3.0 41 64
+ 1.38376 3 2 ack 40 ------- 1 3.0 2.0 41 101
- 1.38376 3 2 ack 40 ------- 1 3.0 2.0 41 101
r 1.38576 3 2 ack 40 ------- 1 3.0 2.0 40 99
+ 1.38576 2 3 tcp 1040 ------- 1 2.0 3.0 60 102
- 1.3904 2 3 tcp 1040 ------- 1 2.0 3.0 44 70
r 1.39208 2 3 tcp 1040 ------- 1 2.0 3.0 42 66
+ 1.39208 3 2 ack 40 ------- 1 3.0 2.0 42 103
- 1.39208 3 2 ack 40 ------- 1 3.0 2.0 42 103
r 1.39408 3 2 ack 40 ------- 1 3.0 2.0 41 101
+ 1.39408 2 3 tcp 1040 ------- 1 2.0 3.0 61 104
- 1.39872 2 3 tcp 1040 ------- 1 2.0 3.0 45 72
r 1.4004 2 3 tcp 1040 ------- 1 2.0 3.0 43 68
+ 1.4004 3 2 ack 40 ------- 1 3.0 2.0 43 105
- 1.4004 3 2 ack 40 ------- 1 3.0 2.0 43 105
r 1.4024 3 2 ack 40 ------- 1 3.0 2.0 42 103
+ 1.4024 2 3 tcp 1040 ------- 1 2.0 3.0 62 106
- 1.40704 2 3 tcp 1040 ------- 1 2.0 3.0 46 74
r 1.40872 2 3 tcp 1040 ------- 1 2.0 3.0 44 70
+ 1.40872 3 2 ack 40 ------- 1 3.0 2.0 44 107
- 1.40872 3 2 ack 40 ------- 1 3.0 2.0 44 107
r 1.41072 3 2 ack 40 ------- 1 3.0 2.0 43 105
+ 1.41072 2 3 tcp 1040 ------- 1 2.0 3.0 63 108
- 1.41536 2 3 tcp 1040 ------- 1 2.0 3.0 47 76
r 1.41704 2 3 tcp 1040 ------- 1 2.0 3.0 45 72
+ 1.41704 3 2 ack 40 ------- 1 3.0 2.0 45 109
- 1.41704 3 2 ack 40 ------- 1 3.0 2.0 45 109
r 1.41904 3 2 ack 40 ------- 1 3.0 2.0 44 107
+ 1.41904 2 3 tcp 1040 ------- 1 2.0 3.0 64 110
- 1.42368 2 3 tcp 1040 ------- 1 2.0 3.0 48 78
r 1.42536 2 3 tcp 1040 ------- 1 2.0 3.0 46 74
+ 1.42536 3 2 ack 40 ------- 1 3.0 2.0 46 111
- 1.42536 3 2 ack 40 ------- 1 3.0 2.0 46 111
r 1.42736 3 2 ack 40 ------- 1 3.0 2.0 45 109
+ 1.42736 2 3 tcp 1040 ------- 1 2.0 3.0 65 112
- 1.432 2 3 tcp 1040 ------- 1 2.0 3.0 49 80
r 1.43368 2 3 tcp 1040 ------- 1 2.0 3.0 47 76
+ 1.43368 3 2 ack 40 ------- 1 3.0 2.0 47 113
- 1.43368 3 2 ack 40 ------- 1 3.0 2.0 47 113
r 1.43568 3 2 ack 40 ------- 1 3.0 2.0 46 111
+ 1.43568 2 3 tcp 1040 ------- 1 2.0 3.0 66 114
- 1.44032 2 3 tcp 1040 ------- 1 2.0 3.0 50 82
r 1.442 2 3 tcp 1040 ------- 1 2.0 3.0 48 78
+ 1.442 3 2 ack 40 ------- 1 3.0 2.0 48 115
- 1.442 3 2 ack 40 ------- 1 3.0 2.0 48 115
r 1.444 3 2 ack 40 ------- 1 3.0 2.0 47 113
+ 1.444 2 3 tcp 1040 ------- 1 2.0 3.0 67 116
- 1.44864 2 3 tcp 1040 ------- 1 2.0 3.0 51 84
r 1.45032 2 3 tcp 1040 ------- 1 2.0 3.0 49 80
+ 1.45032 3 2 ack 40 ------- 1 3.0 2.0 49 117
- 1.45032 3 2 ack 40 ------- 1 3.0 2.0 49 117
r 1.45232 3 2 ack 40 ------- 1 3.0 2.0 48 115
+ 1.45232 2 3 tcp 1040 ------- 1 2.0 3.0 68 118
- 1.45696 2 3 tcp 1040 ------- 1 2.0 3.0 52 86
r 1.45864 2 3 tcp 1040 ------- 1 2.0 3.0 50 82
+ 1.45864 3 2 ack 40 ------- 1 3.0 2.0 50 119
- 1.45864 3 2 ack 40 ------- 1 3.0 2.0 50 119
r 1.46064 3 2 ack 40 ------- 1 3.0 2.0 49 117
+ 1.46064 2 3 tcp 1040 ------- 1 2.0 3.0 69 120
- 1.46528 2 3 tcp 1040 ------- 1 2.0 3.0 53 88
r 1.46696 2 3 tcp 1040 ------- 1 2.0 3.0 51 84
+ 1.46696 3 2 ack 40 ------- 1 3.0 2.0 51 121
- 1.46696 3 2 ack 40 ------- 1 3.0 2.0 51 121
r 1.46896 3 2 ack 40 ------- 1 3.0 2.0 50 119
+ 1.46896 2 3 tcp 1040 ------- 1 2.0 3.0 70 122
- 1.4736 2 3 tcp 1040 ------- 1 2.0 3.0 54 90
r 1.47528 2 3 tcp 1040 ------- 1 2.0 3.0 52 86
+ 1.47528 3 2 ack 40 ------- 1 3.0 2.0 52 123
- 1.47528 3 2 ack 40 ------- 1 3.0 2.0 52 123
r 1.47728 3 2 ack 40 ------- 1 3.0 2.0 51 121
+ 1.47728 2 3 tcp 1040 ------- 1 2.0 3.0 71 124
- 1.48192 2 3 tcp 1040 ------- 1 2.0 3.0 55 92
r 1.4836 2 3 tcp 1040 ------- 1 2.0 3.0 53 88
+ 1.4836 3 2 ack 40 ------- 1 3.0 2.0 53 125
- 1.4836 3 2 ack 40 ------- 1 3.0 2.0 53 125
r 1.4856 3 2 ack 40 ------- 1 3.0 2.0 52 123
+ 1.4856 2 3 tcp 1040 ------- 1 2.0 3.0 72 126
- 1.49024 2 3 tcp 1040 ------- 1 2.0 3.0 56 94
r 1.49192 2 3 tcp 1040 ------- 1 2.0 3.0 54 90
+ 1.49192 3 2 ack 40 ------- 1 3.0 2.0 54 127
- 1.49192 3 2 ack 40 ------- 1 3.0 2.0 54 127
r 1.49392 3 2 ack 40 ------- 1 3.0 2.0 53 125
+ 1.49392 2 3 tcp 1040 ------- 1 2.0 3.0 73 128
- 1.49856 2 3 tcp 1040 ------- 1 2.0 3.0 57 96
r 1.50024 2 3 tcp 1040 ------- 1 2.0 3.0 55 92
+ 1.50024 3 2 ack 40 ------- 1 3.0 2.0 55 129
- 1.50024 3 2 ack 40 ------- 1 3.0 2.0 55 129
r 1.50224 3 2 ack 40 ------- 1 3.0 2.0 54 127
+ 1.50224 2 3 tcp 1040 ------- 1 2.0 3.0 74 130
- 1.50688 2 3 tcp 1040 ------- 1 2.0 3.0 58 98
r 1.50856 2 3 tcp 1040 ------- 1 2.0 3.0 56 94
+ 1.50856 3 2 ack 40 ------- 1 3.0 2.0 56 131
- 1.50856 3 2 ack 40 ------- 1 3.0 2.0 56 131
r 1.51056 3 2 ack 40 ------- 1 3.0 2.0 55 129
+ 1.51056 2 3 tcp 1040 ------- 1 2.0 3.0 75 132
- 1.5152 2 3 tcp 1040 ------- 1 2.0 3.0 59 100
r 1.51688 2 3 tcp 1040 ------- 1 2.0 3.0 57 96
+ 1.51688 3 2 ack 40 ------- 1 3.0 2.0 57 133
- 1.51688 3 2 ack 40 ------- 1 3.0 2.0 57 133
r 1.51888 3 2 ack 40 ------- 1 3.0 2.0 56 131
+ 1.51888 2 3 tcp 1040 ------- 1 2.0 3.0 76 134
- 1.52352 2 3 tcp 1040 ------- 1 2.0 3.0 60 102
r 1.5252 2 3 tcp 1040 ------- 1 2.0 3.0 58 98
+ 1.5252 3 2 ack 40 ------- 1 3.0 2.0 58 135
- 1.5252 3 2 ack 40 ------- 1 3.0 2.0 58 135
r 1.5272 3 2 ack 40 ------- 1 3.0 2.0 57 133
+ 1.5272 2 3 tcp 1040 ------- 1 2.0 3.0 77 136
- 1.53184 2 3 tcp 1040 ------- 1 2.0 3.0 61 104
r 1.53352 2 3 tcp 1040 ------- 1 2.0 3.0 59 100
+ 1.53352 3 2 ack 40 ------- 1 3.0 2.0 59 137
- 1.53352 3 2 ack 40 ------- 1 3.0 2.0 59 137
r 1.53552 3 2 ack 40 ------- 1 3.0 2.0 58 135
+ 1.53552 2 3 tcp 1040 ------- 1 2.0 3.0 78 138
- 1.54016 2 3 tcp 1040 ------- 1 2.0 3.0 62 106
r 1.54184 2 3 tcp 1040 ------- 1 2.0 3.0 60 102
+ 1.54184 3 2 ack 40 ------- 1 3.0 2.0 60 139
- 1.54184 3 2 ack 40 ------- 1 3.0 2.0 60 139
r 1.54384 3 2 ack 40 ------- 1 3.0 2.0 59 137
+ 1.54384 2 3 tcp 1040 ------- 1 2.0 3.0 79 140
- 1.54848 2 3 tcp 1040 ------- 1 2.0 3.0 63 108
r 1.55016 2 3 tcp 1040 ------- 1 2.0 3.0 61 104
+ 1.55016 3 2 ack 40 ------- 1 3.0 2.0 61 141
- 1.55016 3 2 ack 40 ------- 1 3.0 2.0 61 141
r 1.55216 3 2 ack 40 ------- 1 3.0 2.0 60 139
+ 1.55216 2 3 tcp 1040 ------- 1 2.0 3.0 80 142
- 1.5568 2 3 tcp 1040 ------- 1 2.0 3.0 64 110
r 1.55848 2 3 tcp 1040 ------- 1 2.0 3.0 62 106
+ 1.55848 3 2 ack 40 ------- 1 3.0 2.0 62 143
- 1.55848 3 2 ack 40 ------- 1 3.0 2.0 62 143
r 1.56048 3 2 ack 40 ------- 1 3.0 2.0 61 141
+ 1.56048 2 3 tcp 1040 ------- 1 2.0 3.0 81 144
- 1.56512 2 3 tcp 1040 ------- 1 2.0 3.0 65 112
r 1.5668 2 3 tcp 1040 ------- 1 2.0 3.0 63 108
+ 1.5668 3 2 ack 40 ------- 1 3.0 2.0 63 145
- 1.5668 3 2 ack 40 ------- 1 3.0 2.0 63 145
r 1.5688 3 2 ack 40 ------- 1 3.0 2.0 62 143
+ 1.5688 2 3 tcp 1040 ------- 1 2.0 3.0 82 146
- 1.57344 2 3 tcp 1040 ------- 1 2.0 3.0 66 114
r 1.57512 2 3 tcp 1040 ------- 1 2.0 3.0 64 110
+ 1.57512 3 2 ack 40 ------- 1 3.0 2.0 64 147
- 1.57512 3 2 ack 40 ------- 1 3.0 2.0 64 147
r 1.57712 3 2 ack 40 ------- 1 3.0 2.0 63 145
+ 1.57712 2 3 tcp 1040 ------- 1 2.0 3.0 83 148
- 1.58176 2 3 tcp 1040 ------- 1 2.0 3.0 67 116
r 1.58344 2 3 tcp 1040 ------- 1 2.0 3.0 65 112
+ 1.58344 3 2 ack 40 ------- 1 3.0 2.0 65 149
- 1.58344 3 2 ack 40 ------- 1 3.0 2.0 65 149
r 1.58544 3 2 ack 40 ------- 1 3.0 2.0 64 147
+ 1.58544 2 3 tcp 1040 ------- 1 2.0 3.0 84 150
- 1.59008 2 3 tcp 1040 ------- 1 2.0 3.0 68 118
r 1.59176 2 3 tcp 1040 ------- 1 2.0 3.0 66 114
+ 1.59176 3 2 ack 40 ------- 1 3.0 2.0 66 151
- 1.59176 3 2 ack 40 ------- 1 3.0 2.0 66 151
r 1.59376 3 2 ack 40 ------- 1 3.0 2.0 65 149
+ 1.59376 2 3 tcp 1040 ------- 1 2.0 3.0 85 152
- 1.5984 2 3 tcp 1040 ------- 1 2.0 3.0 69 120
r 1.60008 2 3 tcp 1040 ------- 1 2.0 3.0 67 116
+ 1.60008 3 2 ack 40 ------- 1 3.0 2.0 67 153
- 1.60008 3 2 ack 40 ------- 1 3.0 2.0 67 153
r 1.60208 3 2 ack 40 ------- 1 3.0 2.0 66 151
+ 1.60208 2 3 tcp 1040 ------- 1 2.0 3.0 86 154
- 1.60672 2 3 tcp 1040 ------- 1 2.0 3.0 70 122
r 1.6084 2 3 tcp 1040 ------- 1 2.0 3.0 68 118
+ 1.6084 3 2 ack 40 ------- 1 3.0 2.0 68 155
- 1.6084 3 2 ack 40 ------- 1 3.0 2.0 68 155
r 1.6104 3 2 ack 40 ------- 1 3.0 2.0 67 153
+ 1.6104 2 3 tcp 1040 ------- 1 2.0 3.0 87 156
- 1.61504 2 3 tcp 1040 ------- 1 2.0 3.0 71 124
r 1.61672 2 3 tcp 1040 ------- 1 2.0 3.0 69 120
+ 1.61672 3 2 ack 40 ------- 1 3.0 2.0 69 157
- 1.61672 3 2 ack 40 ------- 1 3.0 2.0 69 157
r 1.61872 3 2 ack 40 ------- 1 3.0 2.0 68 155
+ 1.61872 2 3 tcp 1040 ------- 1 2.0 3.0 88 158
- 1.62336 2 3 tcp 1040 ------- 1 2.0 3.0 72 126
r 1.62504 2 3 tcp 1040 ------- 1 2.0 3.0 70 122
+ 1.62504 3 2 ack 40 ------- 1 3.0 2.0 70 159
- 1.62504 3 2 ack 40 ------- 1 3.0 2.0 70 159
r 1.62704 3 2 ack 40 ------- 1 3.0 2.0 69 157
+ 1.62704 2 3 tcp 1040 ------- 1 2.0 3.0 89 160
- 1.63168 2 3 tcp 1040 ------- 1 2.0 3.0 73 128
r 1.63336 2 3 tcp 1040 ------- 1 2.0 3.0 71 124
+ 1.63336 3 2 ack 40 ------- 1 3.0 2.0 71 161
- 1.63336 3 2 ack 40 ------- 1 3.0 2.0 71 161
r 1.63536 3 2 ack 40 ------- 1 3.0 2.0 70 159
+ 1.63536 2 3 tcp 1040 ------- 1 2.0 3.0 90 162
- 1.64 2 3 tcp 1040 ------- 1 2.0 3.0 74 130
r 1.64168 2 3 tcp 1040 ------- 1 2.0 3.0 72 126
+ 1.64168 3 2 ack 40 ------- 1 3.0 2.0 72 163
- 1.64168 3 2 ack 40 ------- 1 3.0 2.0 72 163
r 1.64368 3 2 ack 40 ------- 1 3.0 2.0 71 161
+ 1.64368 2 3 tcp 1040 ------- 1 2.0 3.0 91 164
- 1.64832 2 3 tcp 1040 ------- 1 2.0 3.0 75 132
r 1.65 2 3 tcp 1040 ------- 1 2.0 3.0 73 128
+ 1.65 3 2 ack 40 ------- 1 3.0 2.0 73 165
- 1.65 3 2 ack 40 ------- 1 3.0 2.0 73 165
r 1.652 3 2 ack 40 ------- 1 3.0 2.0 72 163
+ 1.652 2 3 tcp 1040 ------- 1 2.0 3.0 92 166
- 1.65664 2 3 tcp 1040 ------- 1 2.0 3.0 76 134
r 1.65832 2 3 tcp 1040 ------- 1 2.0 3.0 74 130
+ 1.65832 3 2 ack 40 ------- 1 3.0 2.0 74 167
- 1.65832 3 2 ack 40 ------- 1 3.0 2.0 74 167
r 1.66032 3 2 ack 40 ------- 1 3.0 2.0 73 165
+ 1.66032 2 3 tcp 1040 ------- 1 2.0 3.0 93 168
- 1.66496 2 3 tcp 1040 ------- 1 2.0 3.0 77 136
r 1.66664 2 3 tcp 1040 ------- 1 2.0 3.0 75 132
+ 1.66664 3 2 ack 40 ------- 1 3.0 2.0 75 169
- 1.66664 3 2 ack 40 ------- 1 3.0 2.0 75 169
r 1.66864 3 2 ack 40 ------- 1 3.0 2.0 74 167
+ 1.66864 2 3 tcp 1040 ------- 1 2.0 3.0 94 170
- 1.67328 2 3 tcp 1040 ------- 1 2.0 3.0 78 138
r 1.67496 2 3 tcp 1040 ------- 1 2.0 3.0 76 134
+ 1.67496 3 2 ack 40 ------- 1 3.0 2.0 76 171
- 1.67496 3 2 ack 40 ------- 1 3.0 2.0 76 171
r 1.67696 3 2 ack 40 ------- 1 3.0 2.0 75 169
+ 1.67696 2 3 tcp 1040 ------- 1 2.0 3.0 95 172
- 1.6816 2 3 tcp 1040 ------- 1 2.0 3.0 79 140
r 1.68328 2 3 tcp 1040 ------- 1 2.0 3.0 77 136
+ 1.68328 3 2 ack 40 ------- 1 3.0 2.0 77 173
- 1.68328 3 2 ack 40 ------- 1 3.0 2.0 77 173
r 1.68528 3 2 ack 40 ------- 1 3.0 2.0 76 171
+ 1.68528 2 3 tcp 1040 ------- 1 2.0 3.0 96 174
- 1.68992 2 3 tcp 1040 ------- 1 2.0 3.0 80 142
r 1.6916 2 3 tcp 1040 ------- 1 2.0 3.0 78 138
+ 1.6916 3 2 ack 40 ------- 1 3.0 2.0 78 175
- 1.6916 3 2 ack 40 ------- 1 3.0 2.0 78 175
r 1.6936 3 2 ack 40 ------- 1 3.0 2.0 77 173
+ 1.6936 2 3 tcp 1040 ------- 1 2.0 3.0 97 176
- 1.69824 2 3 tcp 1040 ------- 1 2.0 3.0 81 144
r 1.69992 2 3 tcp 1040 ------- 1 2.0 3.0 79 140
+ 1.69992 3 2 ack 40 ------- 1 3.0 2.0 79 177
- 1.69992 3 2 ack 40 ------- 1 3.0 2.0 79 177
r 1.70192 3 2 ack 40 ------- 1 3.0 2.0 78 175
+ 1.70192 2 3 tcp 1040 ------- 1 2.0 3.0 98 178
- 1.70656 2 3 tcp 1040 ------- 1 2.0 3.0 82 146
r 1.70824 2 3 tcp 1040 ------- 1 2.0 3.0 80 142
+ 1.70824 3 2 ack 40 ------- 1 3.0 2.0 80 179
- 1.70824 3 2 ack 40 ------- 1 3.0 2.0 80 179
r 1.71024 3 2 ack 40 ------- 1 3.0 2.0 79 177
+ 1.71024 2 3 tcp 1040 ------- 1 2.0 3.0 99 180
- 1.71488 2 3 tcp 1040 ------- 1 2.0 3.0 83 148
r 1.71656 2 3 tcp 1040 ------- 1 2.0 3.0 81 144
+ 1.71656 3 2 ack 40 ------- 1 3.0 2.0 81 181
- 1.71656 3 2 ack 40 ------- 1 3.0 2.0 81 181
r 1.71856 3 2 ack 40 ------- 1 3.0 2.0 80 179
+ 1.71856 2 3 tcp 1040 ------- 1 2.0 3.0 100 182
- 1.7232 2 3 tcp 1040 ------- 1 2.0 3.0 84 150
r 1.72488 2 3 tcp 1040 ------- 1 2.0 3.0 82 146
+ 1.72488 3 2 ack 40 ------- 1 3.0 2.0 82 183
- 1.72488 3 2 ack 40 ------- 1 3.0 2.0 82 183
r 1.72688 3 2 ack 40 ------- 1 3.0 2.0 81 181
+ 1.72688 2 3 tcp 1040 ------- 1 2.0 3.0 101 184
- 1.73152 2 3 tcp 1040 ------- 1 2.0 3.0 85 152
r 1.7332 2 3 tcp 1040 ------- 1 2.0 3.0 83 148
+ 1.7332 3 2 ack 40 ------- 1 3.0 2.0 83 185
- 1.7332 3 2 ack 40 ------- 1 3.0 2.0 83 185
r 1.7352 3 2 ack 40 ------- 1 3.0 2.0 82 183
+ 1.7352 2 3 tcp 1040 ------- 1 2.0 3.0 102 186
- 1.73984 2 3 tcp 1040 ------- 1 2.0 3.0 86 154
r 1.74152 2 3 tcp 1040 ------- 1 2.0 3.0 84 150
+ 1.74152 3 2 ack 40 ------- 1 3.0 2.0 84 187
- 1.74152 3 2 ack 40 ------- 1 3.0 2.0 84 187
r 1.74352 3 2 ack 40 ------- 1 3.0 2.0 83 185
+ 1.74352 2 3 tcp 1040 ------- 1 2.0 3.0 103 188
- 1.74816 2 3 tcp 1040 ------- 1 2.0 3.0 87 156
r 1.74984 2 3 tcp 1040 ------- 1 2.0 3.0 85 152
+ 1.74984 3 2 ack 40 ------- 1 3.0 2.0 85 189
- 1.74984 3 2 ack 40 ------- 1 3.0 2.0 85 189
r 1.75184 3 2 ack 40 ------- 1 3.0 2.0 84 187
+ 1.75184 2 3 tcp 1040 ------- 1 2.0 3.0 104 190
- 1.75648 2 3 tcp 1040 ------- 1 2.0 3.0 88 158
r 1.75816 2 3 tcp 1040 ------- 1 2.0 3.0 86 154
+ 1.75816 3 2 ack 40 ------- 1 3.0 2.0 86 191
- 1.75816 3 2 ack 40 ------- 1 3.0 2.0 86 191
r 1.76016 3 2 ack 40 ------- 1 3.0 2.0 85 189
+ 1.76016 2 3 tcp 1040 ------- 1 2.0 3.0 105 192
- 1.7648 2 3 tcp 1040 ------- 1 2.0 3.0 89 160
r 1.76648 2 3 tcp 1040 ------- 1 2.0 3.0 87 156
+ 1.76648 3 2 ack 40 ------- 1 3.0 2.0 87 193
- 1.76648 3 2 ack 40 ------- 1 3.0 2.0 87 193
r 1.76848 3 2 ack 40 ------- 1 3.0 2.0 86 191
+ 1.76848 2 3 tcp 1040 ------- 1 2.0 3.0 106 194
- 1.77312 2 3 tcp 1040 ------- 1 2.0 3.0 90 162
r 1.7748 2 3 tcp 1040 ------- 1 2.0 3.0 88 158
+ 1.7748 3 2 ack 40 ------- 1 3.0 2.0 88 195
- 1.7748 3 2 ack 40 ------- 1 3.0 2.0 88 195
r 1.7768 3 2 ack 40 ------- 1 3.0 2.0 87 193
+ 1.7768 2 3 tcp 1040 ------- 1 2.0 3.0 107 196
- 1.78144 2 3 tcp 1040 ------- 1 2.0 3.0 91 164
r 1.78312 2 3 tcp 1040 ------- 1 2.0 3.0 89 160
+ 1.78312 3 2 ack 40 ------- 1 3.0 2.0 89 197
- 1.78312 3 2 ack 40 ------- 1 3.0 2.0 89 197
r 1.78512 3 2 ack 40 ------- 1 3.0 2.0 88 195
+ 1.78512 2 3 tcp 1040 ------- 1 2.0 3.0 108 198
- 1.78976 2 3 tcp 1040 ------- 1 2.0 3.0 92 166
r 1.79144 2 3 tcp 1040 ------- 1 2.0 3.0 90 162
+ 1.79144 3 2 ack 40 ------- 1 3.0 2.0 90 199
- 1.79144 3 2 ack 40 ------- 1 3.0 2.0 90 199
r 1.79344 3 2 ack 40 ------- 1 3.0 2.0 89 197
+ 1.79344 2 3 tcp 1040 ------- 1 2.0 3.0 109 200
- 1.79808 2 3 tcp 1040 ------- 1 2.0 3.0 93 168
r 1.79976 2 3 tcp 1040 ------- 1 2.0 3.0 91 164
+ 1.79976 3 2 ack 40 ------- 1 3.0 2.0 91 201
- 1.79976 3 2 ack 40 ------- 1 3.0 2.0 91 201
r 1.80176 3 2 ack 40 ------- 1 3.0 2.0 90 199
+ 1.80176 2 3 tcp 1040 ------- 1 2.0 3.0 110 202
- 1.8064 2 3 tcp 1040 ------- 1 2.0 3.0 94 170
r 1.80808 2 3 tcp 1040 ------- 1 2.0 3.0 92 166
+ 1.80808 3 2 ack 40 ------- 1 3.0 2.0 92 203
- 1.80808 3 2 ack 40 ------- 1 3.0 2.0 92 203
r 1.81008 3 2 ack 40 ------- 1 3.0 2.0 91 201
+ 1.81008 2 3 tcp 1040 ------- 1 2.0 3.0 111 204
- 1.81472 2 3 tcp 1040 ------- 1 2.0 3.0 95 172
r 1.8164 2 3 tcp 1040 ------- 1 2.0 3.0 93 168
+ 1.8164 3 2 ack 40 ------- 1 3.0 2.0 93 205
- 1.8164 3 2 ack 40 ------- 1 3.0 2.0 93 205
r 1.8184 3 2 ack 40 ------- 1 3.0 2.0 92 203
+ 1.8184 2 3 tcp 1040 ------- 1 2.0 3.0 112 206
- 1.82304 2 3 tcp 1040 ------- 1 2.0 3.0 96 174
r 1.82472 2 3 tcp 1040 ------- 1 2.0 3.0 94 170
+ 1.82472 3 2 ack 40 ------- 1 3.0 2.0 94 207
- 1.82472 3 2 ack 40 ------- 1 3.0 2.0 94 207
r 1.82672 3 2 ack 40 ------- 1 3.0 2.0 93 205
+ 1.82672 2 3 tcp 1040 ------- 1 2.0 3.0 113 208
- 1.83136 2 3 tcp 1040 ------- 1 2.0 3.0 97 176
r 1.83304 2 3 tcp 1040 ------- 1 2.0 3.0 95 172
+ 1.83304 3 2 ack 40 ------- 1 3.0 2.0 95 209
- 1.83304 3 2 ack 40 ------- 1 3.0 2.0 95 209
r 1.83504 3 2 ack 40 ------- 1 3.0 2.0 94 207
+ 1.83504 2 3 tcp 1040 ------- 1 2.0 3.0 114 210
- 1.83968 2 3 tcp 1040 ------- 1 2.0 3.0 98 178
r 1.84136 2 3 tcp 1040 ------- 1 2.0 3.0 96 174
+ 1.84136 3 2 ack 40 ------- 1 3.0 2.0 96 211
- 1.84136 3 2 ack 40 ------- 1 3.0 2.0 96 211
r 1.84336 3 2 ack 40 ------- 1 3.0 2.0 95 209
+ 1.84336 2 3 tcp 1040 ------- 1 2.0 3.0 115 212
- 1.848 2 3 tcp 1040 ------- 1 2.0 3.0 99 180
r 1.84968 2 3 tcp 1040 ------- 1 2.0 3.0 97 176
+ 1.84968 3 2 ack 40 ------- 1 3.0 2.0 97 213
- 1.84968 3 2 ack 40 ------- 1 3.0 2.0 97 213
r 1.85168 3 2 ack 40 ------- 1 3.0 2.0 96 211
+ 1.85168 2 3 tcp 1040 ------- 1 2.0 3.0 116 214
- 1.85632 2 3 tcp 1040 ------- 1 2.0 3.0 100 182
r 1.858 2 3 tcp 1040 ------- 1 2.0 3.0 98 178
+ 1.858 3 2 ack 40 ------- 1 3.0 2.0 98 215
- 1.858 3 2 ack 40 ------- 1 3.0 2.0 98 215
r 1.86 3 2 ack 40 ------- 1 3.0 2.0 97 213
+ 1.86 2 3 tcp 1040 ------- 1 2.0 3.0 117 216
- 1.86464 2 3 tcp 1040 ------- 1 2.0 3.0 101 184
r 1.86632 2 3 tcp 1040 ------- 1 2.0 3.0 99 180
+ 1.86632 3 2 ack 40 ------- 1 3.0 2.0 99 217
- 1.86632 3 2 ack 40 ------- 1 3.0 2.0 99 217
r 1.86832 3 2 ack 40 ------- 1 3.0 2.0 98 215
+ 1.86832 2 3 tcp 1040 ------- 1 2.0 3.0 118 218
- 1.87296 2 3 tcp 1040 ------- 1 2.0 3.0 102 186
r 1.87464 2 3 tcp 1040 ------- 1 2.0 3.0 100 182
+ 1.87464 3 2 ack 40 ------- 1 3.0 2.0 100 219
- 1.87464 3 2 ack 40 ------- 1 3.0 2.0 100 219
r 1.87664 3 2 ack 40 ------- 1 3.0 2.0 99 217
+ 1.87664 2 3 tcp 1040 ------- 1 2.0 3.0 119 220
- 1.88128 2 3 tcp 1040 ------- 1 2.0 3.0 103 188
r 1.88296 2 3 tcp 1040 ------- 1 2.0 3.0 101 184
+ 1.88296 3 2 ack 40 ------- 1 3.0 2.0 101 221
- 1.88296 3 2 ack 40 ------- 1 3.0 2.0 101 221
r 1.88496 3 2 ack 40 ------- 1 3.0 2.0 100 219
+ 1.88496 2 3 tcp 1040 ------- 1 2.0 3.0 120 222
- 1.8896 2 3 tcp 1040 ------- 1 2.0 3.0 104 190
r 1.89128 2 3 tcp 1040 ------- 1 2.0 3.0 102 186
+ 1.89128 3 2 ack 40 ------- 1 3.0 2.0 102 223
- 1.89128 3 2 ack 40 ------- 1 3.0 2.0 102 223
r 1.89328 3 2 ack 40 ------- 1 3.0 2.0 101 221
+ 1.89328 2 3 tcp 1040 ------- 1 2.0 3.0 121 224
- 1.89792 2 3 tcp 1040 ------- 1 2.0 3.0 105 192
r 1.8996 2 3 tcp 1040 ------- 1 2.0 3.0 103 188
+ 1.8996 3 2 ack 40 ------- 1 3.0 2.0 103 225
- 1.8996 3 2 ack 40 ------- 1 3.0 2.0 103 225
r 1.9016 3 2 ack 40 ------- 1 3.0 2.0 102 223
+ 1.9016 2 3 tcp 1040 ------- 1 2.0 3.0 122 226
- 1.90624 2 3 tcp 1040 ------- 1 2.0 3.0 106 194
r 1.90792 2 3 tcp 1040 ------- 1 2.0 3.0 104 190
+ 1.90792 3 2 ack 40 ------- 1 3.0 2.0 104 227
- 1.90792 3 2 ack 40 ------- 1 3.0 2.0 104 227